
                                 *****************
                                 * O   R   C   A *
                                 *****************

                                            #,                                       
                                            ###                                      
                                            ####                                     
                                            #####                                    
                                            ######                                   
                                           ########,                                 
                                     ,,################,,,,,                         
                               ,,#################################,,                 
                          ,,##########################################,,             
                       ,#########################################, ''#####,          
                    ,#############################################,,   '####,        
                  ,##################################################,,,,####,       
                ,###########''''           ''''###############################       
              ,#####''   ,,,,##########,,,,          '''####'''          '####       
            ,##' ,,,,###########################,,,                        '##       
           ' ,,###''''                  '''############,,,                           
         ,,##''                                '''############,,,,        ,,,,,,###''
      ,#''                                            '''#######################'''  
     '                                                          ''''####''''         
             ,#######,   #######,   ,#######,      ##                                
            ,#'     '#,  ##    ##  ,#'     '#,    #''#        ######   ,####,        
            ##       ##  ##   ,#'  ##            #'  '#       #        #'  '#        
            ##       ##  #######   ##           ,######,      #####,   #    #        
            '#,     ,#'  ##    ##  '#,     ,#' ,#      #,         ##   #,  ,#        
             '#######'   ##     ##  '#######'  #'      '#     #####' # '####'        



                  #######################################################
                  #                        -***-                        #
                  #          Department of theory and spectroscopy      #
                  #    Directorship and core code : Frank Neese         #
                  #        Max Planck Institute fuer Kohlenforschung    #
                  #                Kaiser Wilhelm Platz 1               #
                  #                 D-45470 Muelheim/Ruhr               #
                  #                      Germany                        #
                  #                                                     #
                  #                  All rights reserved                #
                  #                        -***-                        #
                  #######################################################


                         Program Version 5.0.3 -  RELEASE  -


 With contributions from (in alphabetic order):
   Daniel Aravena         : Magnetic Suceptibility
   Michael Atanasov       : Ab Initio Ligand Field Theory (pilot matlab implementation)
   Alexander A. Auer      : GIAO ZORA, VPT2 properties, NMR spectrum
   Ute Becker             : Parallelization
   Giovanni Bistoni       : ED, misc. LED, open-shell LED, HFLD
   Martin Brehm           : Molecular dynamics
   Dmytro Bykov           : SCF Hessian
   Vijay G. Chilkuri      : MRCI spin determinant printing, contributions to CSF-ICE
   Dipayan Datta          : RHF DLPNO-CCSD density
   Achintya Kumar Dutta   : EOM-CC, STEOM-CC
   Dmitry Ganyushin       : Spin-Orbit,Spin-Spin,Magnetic field MRCI
   Miquel Garcia          : C-PCM and meta-GGA Hessian, CC/C-PCM, Gaussian charge scheme
   Yang Guo               : DLPNO-NEVPT2, F12-NEVPT2, CIM, IAO-localization
   Andreas Hansen         : Spin unrestricted coupled pair/coupled cluster methods
   Benjamin Helmich-Paris : MC-RPA, TRAH-SCF, COSX integrals
   Lee Huntington         : MR-EOM, pCC
   Robert Izsak           : Overlap fitted RIJCOSX, COSX-SCS-MP3, EOM
   Marcus Kettner         : VPT2
   Christian Kollmar      : KDIIS, OOCD, Brueckner-CCSD(T), CCSD density, CASPT2, CASPT2-K
   Simone Kossmann        : Meta GGA functionals, TD-DFT gradient, OOMP2, MP2 Hessian
   Martin Krupicka        : Initial AUTO-CI
   Lucas Lang             : DCDCAS
   Marvin Lechner         : AUTO-CI (C++ implementation), FIC-MRCC
   Dagmar Lenk            : GEPOL surface, SMD
   Dimitrios Liakos       : Extrapolation schemes; Compound Job, initial MDCI parallelization
   Dimitrios Manganas     : Further ROCIS development; embedding schemes
   Dimitrios Pantazis     : SARC Basis sets
   Anastasios Papadopoulos: AUTO-CI, single reference methods and gradients
   Taras Petrenko         : DFT Hessian,TD-DFT gradient, ASA, ECA, R-Raman, ABS, FL, XAS/XES, NRVS
   Peter Pinski           : DLPNO-MP2, DLPNO-MP2 Gradient
   Christoph Reimann      : Effective Core Potentials
   Marius Retegan         : Local ZFS, SOC
   Christoph Riplinger    : Optimizer, TS searches, QM/MM, DLPNO-CCSD(T), (RO)-DLPNO pert. Triples
   Tobias Risthaus        : Range-separated hybrids, TD-DFT gradient, RPA, STAB
   Michael Roemelt        : Original ROCIS implementation
   Masaaki Saitow         : Open-shell DLPNO-CCSD energy and density
   Barbara Sandhoefer     : DKH picture change effects
   Avijit Sen             : IP-ROCIS
   Kantharuban Sivalingam : CASSCF convergence, NEVPT2, FIC-MRCI
   Bernardo de Souza      : ESD, SOC TD-DFT
   Georgi Stoychev        : AutoAux, RI-MP2 NMR, DLPNO-MP2 response
   Willem Van den Heuvel  : Paramagnetic NMR
   Boris Wezisla          : Elementary symmetry handling
   Frank Wennmohs         : Technical directorship


 We gratefully acknowledge several colleagues who have allowed us to
 interface, adapt or use parts of their codes:
   Stefan Grimme, W. Hujo, H. Kruse, P. Pracht,  : VdW corrections, initial TS optimization,
                  C. Bannwarth, S. Ehlert          DFT functionals, gCP, sTDA/sTD-DF
   Ed Valeev, F. Pavosevic, A. Kumar             : LibInt (2-el integral package), F12 methods
   Garnet Chan, S. Sharma, J. Yang, R. Olivares  : DMRG
   Ulf Ekstrom                                   : XCFun DFT Library
   Mihaly Kallay                                 : mrcc  (arbitrary order and MRCC methods)
   Jiri Pittner, Ondrej Demel                    : Mk-CCSD
   Frank Weinhold                                : gennbo (NPA and NBO analysis)
   Christopher J. Cramer and Donald G. Truhlar   : smd solvation model
   Lars Goerigk                                  : TD-DFT with DH, B97 family of functionals
   V. Asgeirsson, H. Jonsson                     : NEB implementation
   FAccTs GmbH                                   : IRC, NEB, NEB-TS, DLPNO-Multilevel, CI-OPT
                                                   MM, QMMM, 2- and 3-layer-ONIOM, Crystal-QMMM,
                                                   LR-CPCM, SF, NACMEs, symmetry and pop. for TD-DFT,
                                                   nearIR, NL-DFT gradient (VV10), updates on ESD,
                                                   ML-optimized integration grids
   S Lehtola, MJT Oliveira, MAL Marques          : LibXC Library
   Liviu Ungur et al                             : ANISO software


 Your calculation uses the libint2 library for the computation of 2-el integrals
 For citations please refer to: http://libint.valeyev.net

 Your ORCA version has been built with support for libXC version: 5.1.0
 For citations please refer to: https://tddft.org/programs/libxc/

 This ORCA versions uses:
   CBLAS   interface :  Fast vector & matrix operations
   LAPACKE interface :  Fast linear algebra routines
   SCALAPACK package :  Parallel linear algebra routines
   Shared memory     :  Shared parallel matrices
   BLAS/LAPACK       :  OpenBLAS 0.3.15  USE64BITINT DYNAMIC_ARCH NO_AFFINITY Haswell SINGLE_THREADED
        Core in use  :  Haswell
   Copyright (c) 2011-2014, The OpenBLAS Project




***************************************
The coordinates will be read from file: input_orca.pdb
***************************************


WARNING: QMAtoms defined in input, but use_qm_infofrompdb requested.
   ===>  Ignoring QMAtoms list from input file, and using info from pdb file instead.
Preparing ONIOM calculation             ...         done
DQMMM->isMMAtom:
	  0         0     
	  1         0     
	  2         0     
	  3         0     
	  4         0     
	  5         0     
	  6         0     
	  7         0     
	  8         0     
	  9         0     
	 10         0     
	 11         0     
	 12         0     
	 13         0     
	 14         0     
	 15         0     
	 16         0     
	 17         0     
	 18         0     
	 19         0     
	 20         0     
	 21         0     
	 22         0     
	 23         0     
	 24         0     
	 25         0     
	 26         0     
	 27         0     
	 28         0     
	 29         0     
	 30         0     
	 31         0     
	 32         0     
	 33         0     
	 34         0     
	 35         0     
	 36         0     
	 37         0     
	 38         0     
	 39         0     
	 40         0     
	 41         0     
	 42         0     
	 43         0     
	 44         0     
	 45         0     
	 46         0     
	 47         0     
	 48         0     
	 49         0     
	 50         0     
	 51         0     
	 52         0     
	 53         0     
	 54         0     
	 55         0     
	 56         0     
	 57         0     
	 58         0     
	 59         0     
	 60         0     
	 61         0     
	 62         0     
	 63         0     
	 64         0     
	 65         0     
	 66         0     
	 67         0     
	 68         0     
	 69         0     
	 70         0     
	 71         0     
	 72         0     
	 73         0     
	 74         0     
	 75         0     
	 76         0     
	 77         0     
	 78         0     
	 79         0     
	 80         0     
	 81         0     
	 82         0     
	 83         0     
	 84         0     
	 85         0     
	 86         0     
	 87         0     
	 88         0     
	 89         0     
	 90         0     
	 91         0     
	 92         0     
	 93         0     
	 94         0     
	 95         0     
	 96         0     
	 97         0     
	 98         0     
	 99         0     
	100         0     
	101         0     
	102         0     
	103         0     
	104         0     
	105         0     
	106         0     
	107         0     
	108         0     
	109         0     
	110         0     
	111         0     
	112         0     
	113         0     
	114         0     
	115         0     
	116         0     
	117         0     
	118         0     
	119         0     
	120         0     
	121         0     
	122         0     
	123         0     
	124         0     
	125         0     
	126         0     
	127         0     
	128         0     
	129         0     
	130         0     
	131         0     
	132         0     
	133         0     
	134         0     
	135         0     
	136         0     
	137         0     
	138         0     
	139         0     
	140         0     
	141         0     
	142         0     
	143         0     
	144         0     
	145         0     
	146         0     
	147         0     
	148         0     
	149         0     
	150         0     
	151         0     
	152         0     
	153         0     
	154         0     
	155         0     
	156         0     
	157         0     
	158         0     
	159         0     
	160         0     
	161         0     

DQMMM->PCAtoms:
	  0         1     
	  1         1     
	  2         1     
	  3         1     
	  4         1     
	  5         1     
	  6         1     
	  7         1     
	  8         1     
	  9         1     
	 10         1     
	 11         1     
	 12         1     
	 13         1     
	 14         1     
	 15         1     
	 16         1     
	 17         1     
	 18         1     
	 19         1     
	 20         1     
	 21         1     
	 22         1     
	 23         1     
	 24         1     
	 25         1     
	 26         1     
	 27         1     
	 28         1     
	 29         1     
	 30         1     
	 31         1     
	 32         1     
	 33         1     
	 34         1     
	 35         1     
	 36         1     
	 37         1     
	 38         1     
	 39         1     
	 40         1     
	 41         1     
	 42         1     
	 43         1     
	 44         1     
	 45         1     
	 46         1     
	 47         1     
	 48         1     
	 49         1     
	 50         1     
	 51         1     
	 52         1     
	 53         1     
	 54         1     
	 55         1     
	 56         1     
	 57         1     
	 58         1     
	 59         1     
	 60         1     
	 61         1     
	 62         1     
	 63         1     
	 64         1     
	 65         1     
	 66         1     
	 67         1     
	 68         1     
	 69         1     
	 70         1     
	 71         1     
	 72         1     
	 73         1     
	 74         1     
	 75         1     
	 76         1     
	 77         1     
	 78         1     
	 79         1     
	 80         1     
	 81         1     
	 82         1     
	 83         1     
	 84         1     
	 85         1     
	 86         1     
	 87         1     
	 88         1     
	 89         1     
	 90         1     
	 91         1     
	 92         1     
	 93         1     
	 94         1     
	 95         1     
	 96         1     
	 97         1     
	 98         1     
	 99         1     
	100         1     
	101         1     
	102         1     
	103         1     
	104         1     
	105         1     
	106         1     
	107         1     
	108         1     
	109         1     
	110         1     
	111         1     
	112         1     
	113         1     
	114         1     
	115         1     
	116         1     
	117         1     
	118         1     
	119         1     
	120         1     
	121         1     
	122         1     
	123         1     
	124         1     
	125         1     
	126         1     
	127         1     
	128         1     
	129         1     
	130         1     
	131         1     
	132         1     
	133         1     
	134         1     
	135         1     
	136         1     
	137         1     
	138         1     
	139         1     
	140         1     
	141         1     
	142         1     
	143         1     
	144         1     
	145         1     
	146         1     
	147         0     
	148         0     
	149         0     
	150         0     
	151         0     
	152         0     
	153         0     
	154         0     
	155         0     
	156         0     
	157         0     
	158         0     
	159         0     
	160         0     
	161         0     

DQMMM->PCAtoms2:
	  0         0     
	  1         0     
	  2         0     
	  3         0     
	  4         0     
	  5         0     
	  6         0     
	  7         0     
	  8         0     
	  9         0     
	 10         0     
	 11         0     
	 12         0     
	 13         0     
	 14         0     
	 15         0     
	 16         0     
	 17         0     
	 18         0     
	 19         0     
	 20         0     
	 21         0     
	 22         0     
	 23         0     
	 24         0     
	 25         0     
	 26         0     
	 27         0     
	 28         0     
	 29         0     
	 30         0     
	 31         0     
	 32         0     
	 33         0     
	 34         0     
	 35         0     
	 36         0     
	 37         0     
	 38         0     
	 39         0     
	 40         0     
	 41         0     
	 42         0     
	 43         0     
	 44         0     
	 45         0     
	 46         0     
	 47         0     
	 48         0     
	 49         0     
	 50         0     
	 51         0     
	 52         0     
	 53         0     
	 54         0     
	 55         0     
	 56         0     
	 57         0     
	 58         0     
	 59         0     
	 60         0     
	 61         0     
	 62         0     
	 63         0     
	 64         0     
	 65         0     
	 66         0     
	 67         0     
	 68         0     
	 69         0     
	 70         0     
	 71         0     
	 72         0     
	 73         0     
	 74         0     
	 75         0     
	 76         0     
	 77         0     
	 78         0     
	 79         0     
	 80         0     
	 81         0     
	 82         0     
	 83         0     
	 84         0     
	 85         0     
	 86         0     
	 87         0     
	 88         0     
	 89         0     
	 90         0     
	 91         0     
	 92         0     
	 93         0     
	 94         0     
	 95         0     
	 96         0     
	 97         0     
	 98         0     
	 99         0     
	100         0     
	101         0     
	102         0     
	103         0     
	104         0     
	105         0     
	106         0     
	107         0     
	108         0     
	109         0     
	110         0     
	111         0     
	112         0     
	113         0     
	114         0     
	115         0     
	116         0     
	117         0     
	118         0     
	119         0     
	120         0     
	121         0     
	122         0     
	123         0     
	124         0     
	125         0     
	126         0     
	127         0     
	128         0     
	129         0     
	130         0     
	131         0     
	132         0     
	133         0     
	134         0     
	135         0     
	136         0     
	137         0     
	138         0     
	139         0     
	140         0     
	141         0     
	142         0     
	143         0     
	144         0     
	145         0     
	146         0     
	147         0     
	148         0     
	149         0     
	150         0     
	151         0     
	152         0     
	153         0     
	154         0     
	155         0     
	156         0     
	157         0     
	158         0     
	159         0     
	160         0     
	161         0     

end
charges QMMM_setMM: charges before:

charges2 before:

done
isMM used:
	  0         0     
	  1         0     
	  2         0     
	  3         0     
	  4         0     
	  5         0     
	  6         0     
	  7         0     
	  8         0     
	  9         0     
	 10         0     
	 11         0     
	 12         0     
	 13         0     
	 14         0     
	 15         0     
	 16         0     
	 17         0     
	 18         0     
	 19         0     
	 20         0     
	 21         0     
	 22         0     
	 23         0     
	 24         0     
	 25         0     
	 26         0     
	 27         0     
	 28         0     
	 29         0     
	 30         0     
	 31         0     
	 32         0     
	 33         0     
	 34         0     
	 35         0     
	 36         0     
	 37         0     
	 38         0     
	 39         0     
	 40         0     
	 41         0     
	 42         0     
	 43         0     
	 44         0     
	 45         0     
	 46         0     
	 47         0     
	 48         0     
	 49         0     
	 50         0     
	 51         0     
	 52         0     
	 53         0     
	 54         0     
	 55         0     
	 56         0     
	 57         0     
	 58         0     
	 59         0     
	 60         0     
	 61         0     
	 62         0     
	 63         0     
	 64         0     
	 65         0     
	 66         0     
	 67         0     
	 68         0     
	 69         0     
	 70         0     
	 71         0     
	 72         0     
	 73         0     
	 74         0     
	 75         0     
	 76         0     
	 77         0     
	 78         0     
	 79         0     
	 80         0     
	 81         0     
	 82         0     
	 83         0     
	 84         0     
	 85         0     
	 86         0     
	 87         0     
	 88         0     
	 89         0     
	 90         0     
	 91         0     
	 92         0     
	 93         0     
	 94         0     
	 95         0     
	 96         0     
	 97         0     
	 98         0     
	 99         0     
	100         0     
	101         0     
	102         0     
	103         0     
	104         0     
	105         0     
	106         0     
	107         0     
	108         0     
	109         0     
	110         0     
	111         0     
	112         0     
	113         0     
	114         0     
	115         0     
	116         0     
	117         0     
	118         0     
	119         0     
	120         0     
	121         0     
	122         0     
	123         0     
	124         0     
	125         0     
	126         0     
	127         0     
	128         0     
	129         0     
	130         0     
	131         0     
	132         0     
	133         0     
	134         0     
	135         0     
	136         0     
	137         0     
	138         0     
	139         0     
	140         0     
	141         0     
	142         0     
	143         0     
	144         0     
	145         0     
	146         0     
	147         0     
	148         0     
	149         0     
	150         0     
	151         0     
	152         0     
	153         0     
	154         0     
	155         0     
	156         0     
	157         0     
	158         0     
	159         0     
	160         0     
	161         0     

isMM end
charges2 before shifting:
	  0       0.000000
	  1       0.000000
	  2       0.000000
	  3       0.000000
	  4       0.000000
	  5       0.000000
	  6       0.000000
	  7       0.000000
	  8       0.000000
	  9       0.000000
	 10       0.000000
	 11       0.000000
	 12       0.000000
	 13       0.000000
	 14       0.000000
	 15       0.000000
	 16       0.000000
	 17       0.000000
	 18       0.000000
	 19       0.000000
	 20       0.000000
	 21       0.000000
	 22       0.000000
	 23       0.000000
	 24       0.000000
	 25       0.000000
	 26       0.000000
	 27       0.000000
	 28       0.000000
	 29       0.000000
	 30       0.000000
	 31       0.000000
	 32       0.000000
	 33       0.000000
	 34       0.000000
	 35       0.000000
	 36       0.000000
	 37       0.000000
	 38       0.000000
	 39       0.000000
	 40       0.000000
	 41       0.000000
	 42       0.000000
	 43       0.000000
	 44       0.000000
	 45       0.000000
	 46       0.000000
	 47       0.000000
	 48       0.000000
	 49       0.000000
	 50       0.000000
	 51       0.000000
	 52       0.000000
	 53       0.000000
	 54       0.000000
	 55       0.000000
	 56       0.000000
	 57       0.000000
	 58       0.000000
	 59       0.000000
	 60       0.000000
	 61       0.000000
	 62       0.000000
	 63       0.000000
	 64       0.000000
	 65       0.000000
	 66       0.000000
	 67       0.000000
	 68       0.000000
	 69       0.000000
	 70       0.000000
	 71       0.000000
	 72       0.000000
	 73       0.000000
	 74       0.000000
	 75       0.000000
	 76       0.000000
	 77       0.000000
	 78       0.000000
	 79       0.000000
	 80       0.000000
	 81       0.000000
	 82       0.000000
	 83       0.000000
	 84       0.000000
	 85       0.000000
	 86       0.000000
	 87       0.000000
	 88       0.000000
	 89       0.000000
	 90       0.000000
	 91       0.000000
	 92       0.000000
	 93       0.000000
	 94       0.000000
	 95       0.000000
	 96       0.000000
	 97       0.000000
	 98       0.000000
	 99       0.000000
	100       0.000000
	101       0.000000
	102       0.000000
	103       0.000000
	104       0.000000
	105       0.000000
	106       0.000000
	107       0.000000
	108       0.000000
	109       0.000000
	110       0.000000
	111       0.000000
	112       0.000000
	113       0.000000
	114       0.000000
	115       0.000000
	116       0.000000
	117       0.000000
	118       0.000000
	119       0.000000
	120       0.000000
	121       0.000000
	122       0.000000
	123       0.000000
	124       0.000000
	125       0.000000
	126       0.000000
	127       0.000000
	128       0.000000
	129       0.000000
	130       0.000000
	131       0.000000
	132       0.000000
	133       0.000000
	134       0.000000
	135       0.000000
	136       0.000000
	137       0.000000
	138       0.000000
	139       0.000000
	140       0.000000
	141       0.000000
	142       0.000000
	143       0.000000
	144       0.000000
	145       0.000000
	146       0.000000
	147       0.000000
	148       0.000000
	149       0.000000
	150       0.000000
	151       0.000000
	152       0.000000
	153       0.000000
	154       0.000000
	155       0.000000
	156       0.000000
	157       0.000000
	158       0.000000
	159       0.000000
	160       0.000000
	161       0.000000

charges2 after:
	  0       0.000000
	  1       0.000000
	  2       0.000000
	  3       0.000000
	  4       0.000000
	  5       0.000000
	  6       0.000000
	  7       0.000000
	  8       0.000000
	  9       0.000000
	 10       0.000000
	 11       0.000000
	 12       0.000000
	 13       0.000000
	 14       0.000000
	 15       0.000000
	 16       0.000000
	 17       0.000000
	 18       0.000000
	 19       0.000000
	 20       0.000000
	 21       0.000000
	 22       0.000000
	 23       0.000000
	 24       0.000000
	 25       0.000000
	 26       0.000000
	 27       0.000000
	 28       0.000000
	 29       0.000000
	 30       0.000000
	 31       0.000000
	 32       0.000000
	 33       0.000000
	 34       0.000000
	 35       0.000000
	 36       0.000000
	 37       0.000000
	 38       0.000000
	 39       0.000000
	 40       0.000000
	 41       0.000000
	 42       0.000000
	 43       0.000000
	 44       0.000000
	 45       0.000000
	 46       0.000000
	 47       0.000000
	 48       0.000000
	 49       0.000000
	 50       0.000000
	 51       0.000000
	 52       0.000000
	 53       0.000000
	 54       0.000000
	 55       0.000000
	 56       0.000000
	 57       0.000000
	 58       0.000000
	 59       0.000000
	 60       0.000000
	 61       0.000000
	 62       0.000000
	 63       0.000000
	 64       0.000000
	 65       0.000000
	 66       0.000000
	 67       0.000000
	 68       0.000000
	 69       0.000000
	 70       0.000000
	 71       0.000000
	 72       0.000000
	 73       0.000000
	 74       0.000000
	 75       0.000000
	 76       0.000000
	 77       0.000000
	 78       0.000000
	 79       0.000000
	 80       0.000000
	 81       0.000000
	 82       0.000000
	 83       0.000000
	 84       0.000000
	 85       0.000000
	 86       0.000000
	 87       0.000000
	 88       0.000000
	 89       0.000000
	 90       0.000000
	 91       0.000000
	 92       0.000000
	 93       0.000000
	 94       0.000000
	 95       0.000000
	 96       0.000000
	 97       0.000000
	 98       0.000000
	 99       0.000000
	100       0.000000
	101       0.000000
	102       0.000000
	103       0.000000
	104       0.000000
	105       0.000000
	106       0.000000
	107       0.000000
	108       0.000000
	109       0.000000
	110       0.000000
	111       0.000000
	112       0.000000
	113       0.000000
	114       0.000000
	115       0.000000
	116       0.000000
	117       0.000000
	118       0.000000
	119       0.000000
	120       0.000000
	121       0.000000
	122       0.000000
	123       0.000000
	124       0.000000
	125       0.000000
	126       0.000000
	127       0.000000
	128       0.000000
	129       0.000000
	130       0.000000
	131       0.000000
	132       0.000000
	133       0.000000
	134       0.000000
	135       0.000000
	136       0.000000
	137       0.000000
	138       0.000000
	139       0.000000
	140       0.000000
	141       0.000000
	142       0.000000
	143       0.000000
	144       0.000000
	145       0.000000
	146       0.000000
	147       0.000000
	148       0.000000
	149       0.000000
	150       0.000000
	151       0.000000
	152       0.000000
	153       0.000000
	154       0.000000
	155       0.000000
	156       0.000000
	157       0.000000
	158       0.000000
	159       0.000000
	160       0.000000
	161       0.000000

QMMM_setQM2Charges:
charges before:

charges2 before:
	  0       0.000000
	  1       0.000000
	  2       0.000000
	  3       0.000000
	  4       0.000000
	  5       0.000000
	  6       0.000000
	  7       0.000000
	  8       0.000000
	  9       0.000000
	 10       0.000000
	 11       0.000000
	 12       0.000000
	 13       0.000000
	 14       0.000000
	 15       0.000000
	 16       0.000000
	 17       0.000000
	 18       0.000000
	 19       0.000000
	 20       0.000000
	 21       0.000000
	 22       0.000000
	 23       0.000000
	 24       0.000000
	 25       0.000000
	 26       0.000000
	 27       0.000000
	 28       0.000000
	 29       0.000000
	 30       0.000000
	 31       0.000000
	 32       0.000000
	 33       0.000000
	 34       0.000000
	 35       0.000000
	 36       0.000000
	 37       0.000000
	 38       0.000000
	 39       0.000000
	 40       0.000000
	 41       0.000000
	 42       0.000000
	 43       0.000000
	 44       0.000000
	 45       0.000000
	 46       0.000000
	 47       0.000000
	 48       0.000000
	 49       0.000000
	 50       0.000000
	 51       0.000000
	 52       0.000000
	 53       0.000000
	 54       0.000000
	 55       0.000000
	 56       0.000000
	 57       0.000000
	 58       0.000000
	 59       0.000000
	 60       0.000000
	 61       0.000000
	 62       0.000000
	 63       0.000000
	 64       0.000000
	 65       0.000000
	 66       0.000000
	 67       0.000000
	 68       0.000000
	 69       0.000000
	 70       0.000000
	 71       0.000000
	 72       0.000000
	 73       0.000000
	 74       0.000000
	 75       0.000000
	 76       0.000000
	 77       0.000000
	 78       0.000000
	 79       0.000000
	 80       0.000000
	 81       0.000000
	 82       0.000000
	 83       0.000000
	 84       0.000000
	 85       0.000000
	 86       0.000000
	 87       0.000000
	 88       0.000000
	 89       0.000000
	 90       0.000000
	 91       0.000000
	 92       0.000000
	 93       0.000000
	 94       0.000000
	 95       0.000000
	 96       0.000000
	 97       0.000000
	 98       0.000000
	 99       0.000000
	100       0.000000
	101       0.000000
	102       0.000000
	103       0.000000
	104       0.000000
	105       0.000000
	106       0.000000
	107       0.000000
	108       0.000000
	109       0.000000
	110       0.000000
	111       0.000000
	112       0.000000
	113       0.000000
	114       0.000000
	115       0.000000
	116       0.000000
	117       0.000000
	118       0.000000
	119       0.000000
	120       0.000000
	121       0.000000
	122       0.000000
	123       0.000000
	124       0.000000
	125       0.000000
	126       0.000000
	127       0.000000
	128       0.000000
	129       0.000000
	130       0.000000
	131       0.000000
	132       0.000000
	133       0.000000
	134       0.000000
	135       0.000000
	136       0.000000
	137       0.000000
	138       0.000000
	139       0.000000
	140       0.000000
	141       0.000000
	142       0.000000
	143       0.000000
	144       0.000000
	145       0.000000
	146       0.000000
	147       0.000000
	148       0.000000
	149       0.000000
	150       0.000000
	151       0.000000
	152       0.000000
	153       0.000000
	154       0.000000
	155       0.000000
	156       0.000000
	157       0.000000
	158       0.000000
	159       0.000000
	160       0.000000
	161       0.000000

done
charges after:
	  0       0.000000
	  1       0.000000
	  2       0.000000
	  3       0.000000
	  4       0.000000
	  5       0.000000
	  6       0.000000
	  7       0.000000
	  8       0.000000
	  9       0.000000
	 10       0.000000
	 11       0.000000
	 12       0.000000
	 13       0.000000
	 14       0.000000
	 15       0.000000
	 16       0.000000
	 17       0.000000
	 18       0.000000
	 19       0.000000
	 20       0.000000
	 21       0.000000
	 22       0.000000
	 23       0.000000
	 24       0.000000
	 25       0.000000
	 26       0.000000
	 27       0.000000
	 28       0.000000
	 29       0.000000
	 30       0.000000
	 31       0.000000
	 32       0.000000
	 33       0.000000
	 34       0.000000
	 35       0.000000
	 36       0.000000
	 37       0.000000
	 38       0.000000
	 39       0.000000
	 40       0.000000
	 41       0.000000
	 42       0.000000
	 43       0.000000
	 44       0.000000
	 45       0.000000
	 46       0.000000
	 47       0.000000
	 48       0.000000
	 49       0.000000
	 50       0.000000
	 51       0.000000
	 52       0.000000
	 53       0.000000
	 54       0.000000
	 55       0.000000
	 56       0.000000
	 57       0.000000
	 58       0.000000
	 59       0.000000
	 60       0.000000
	 61       0.000000
	 62       0.000000
	 63       0.000000
	 64       0.000000
	 65       0.000000
	 66       0.000000
	 67       0.000000
	 68       0.000000
	 69       0.000000
	 70       0.000000
	 71       0.000000
	 72       0.000000
	 73       0.000000
	 74       0.000000
	 75       0.000000
	 76       0.000000
	 77       0.000000
	 78       0.000000
	 79       0.000000
	 80       0.000000
	 81       0.000000
	 82       0.000000
	 83       0.000000
	 84       0.000000
	 85       0.000000
	 86       0.000000
	 87       0.000000
	 88       0.000000
	 89       0.000000
	 90       0.000000
	 91       0.000000
	 92       0.000000
	 93       0.000000
	 94       0.000000
	 95       0.000000
	 96       0.000000
	 97       0.000000
	 98       0.000000
	 99       0.000000
	100       0.000000
	101       0.000000
	102       0.000000
	103       0.000000
	104       0.000000
	105       0.000000
	106       0.000000
	107       0.000000
	108       0.000000
	109       0.000000
	110       0.000000
	111       0.000000
	112       0.000000
	113       0.000000
	114       0.000000
	115       0.000000
	116       0.000000
	117       0.000000
	118       0.000000
	119       0.000000
	120       0.000000
	121       0.000000
	122       0.000000
	123       0.000000
	124       0.000000
	125       0.000000
	126       0.000000
	127       0.000000
	128       0.000000
	129       0.000000
	130       0.000000
	131       0.000000
	132       0.000000
	133       0.000000
	134       0.000000
	135       0.000000
	136       0.000000
	137       0.000000
	138       0.000000
	139       0.000000
	140       0.000000
	141       0.000000
	142       0.000000
	143       0.000000
	144       0.000000
	145       0.000000
	146       0.000000
	147       0.000000
	148       0.000000
	149       0.000000
	150       0.000000
	151       0.000000
	152       0.000000
	153       0.000000
	154       0.000000
	155       0.000000
	156       0.000000
	157       0.000000
	158       0.000000
	159       0.000000
	160       0.000000
	161       0.000000

charges after QMMM_setMMCharges:
	  0       0.000000
	  1       0.000000
	  2       0.000000
	  3       0.000000
	  4       0.000000
	  5       0.000000
	  6       0.000000
	  7       0.000000
	  8       0.000000
	  9       0.000000
	 10       0.000000
	 11       0.000000
	 12       0.000000
	 13       0.000000
	 14       0.000000
	 15       0.000000
	 16       0.000000
	 17       0.000000
	 18       0.000000
	 19       0.000000
	 20       0.000000
	 21       0.000000
	 22       0.000000
	 23       0.000000
	 24       0.000000
	 25       0.000000
	 26       0.000000
	 27       0.000000
	 28       0.000000
	 29       0.000000
	 30       0.000000
	 31       0.000000
	 32       0.000000
	 33       0.000000
	 34       0.000000
	 35       0.000000
	 36       0.000000
	 37       0.000000
	 38       0.000000
	 39       0.000000
	 40       0.000000
	 41       0.000000
	 42       0.000000
	 43       0.000000
	 44       0.000000
	 45       0.000000
	 46       0.000000
	 47       0.000000
	 48       0.000000
	 49       0.000000
	 50       0.000000
	 51       0.000000
	 52       0.000000
	 53       0.000000
	 54       0.000000
	 55       0.000000
	 56       0.000000
	 57       0.000000
	 58       0.000000
	 59       0.000000
	 60       0.000000
	 61       0.000000
	 62       0.000000
	 63       0.000000
	 64       0.000000
	 65       0.000000
	 66       0.000000
	 67       0.000000
	 68       0.000000
	 69       0.000000
	 70       0.000000
	 71       0.000000
	 72       0.000000
	 73       0.000000
	 74       0.000000
	 75       0.000000
	 76       0.000000
	 77       0.000000
	 78       0.000000
	 79       0.000000
	 80       0.000000
	 81       0.000000
	 82       0.000000
	 83       0.000000
	 84       0.000000
	 85       0.000000
	 86       0.000000
	 87       0.000000
	 88       0.000000
	 89       0.000000
	 90       0.000000
	 91       0.000000
	 92       0.000000
	 93       0.000000
	 94       0.000000
	 95       0.000000
	 96       0.000000
	 97       0.000000
	 98       0.000000
	 99       0.000000
	100       0.000000
	101       0.000000
	102       0.000000
	103       0.000000
	104       0.000000
	105       0.000000
	106       0.000000
	107       0.000000
	108       0.000000
	109       0.000000
	110       0.000000
	111       0.000000
	112       0.000000
	113       0.000000
	114       0.000000
	115       0.000000
	116       0.000000
	117       0.000000
	118       0.000000
	119       0.000000
	120       0.000000
	121       0.000000
	122       0.000000
	123       0.000000
	124       0.000000
	125       0.000000
	126       0.000000
	127       0.000000
	128       0.000000
	129       0.000000
	130       0.000000
	131       0.000000
	132       0.000000
	133       0.000000
	134       0.000000
	135       0.000000
	136       0.000000
	137       0.000000
	138       0.000000
	139       0.000000
	140       0.000000
	141       0.000000
	142       0.000000
	143       0.000000
	144       0.000000
	145       0.000000
	146       0.000000
	147       0.000000
	148       0.000000
	149       0.000000
	150       0.000000
	151       0.000000
	152       0.000000
	153       0.000000
	154       0.000000
	155       0.000000
	156       0.000000
	157       0.000000
	158       0.000000
	159       0.000000
	160       0.000000
	161       0.000000

================================================================================

----- Orbital basis set information -----
Your calculation utilizes the basis: 6-31G(d,p)
   H-He, Li-Ne : W. J. Hehre, R. Ditchfield and J.A. Pople, J. Chem. Phys. 56, 2257 (1972).
                 Note: He and Ne are unpublished basis sets taken from the Gaussian program.
                 Note: Li and B from J. D. Dill and J. A. Pople, J. Chem. Phys. 62, 2921 (1975).
   Na - Ar     : M. M. Francl, W. J. Pietro, W. J. Hehre, J. S. Binkley, M. S. Gordon, 
                 D. J. DeFrees and J. A. Pople, J. Chem. Phys. 77, 3654 (1982).
   K - Zn      : V. A. Rassolov, J. A. Pople, M. A. Ratner, and T. L. Windus, J. Chem. Phys. 109, 1223 (1998).

----- AuxJ basis set information -----
Your calculation utilizes the auxiliary basis: def2/J
   F. Weigend, Phys. Chem. Chem. Phys. 8, 1057 (2006).

================================================================================
                                        WARNINGS
                       Please study these warnings very carefully!
================================================================================


INFO   : the flag for use of the SHARK integral package has been found!

================================================================================
                                       INPUT FILE
================================================================================
NAME = orca_qmm.inp
|  1> %PAL NPROCS 8 END
|  2> !QM/XTB/MM B3LYP 6-31G(d,p)
|  3> !CHELPG
|  4> %QMMM
|  5> PRINTLEVEL 5
|  6> ORCAFFFilename "hostguest.parm7.ORCAFF.prms"
|  7> QMATOMS {147:161} END
|  8> QM2ATOMS {0:146} END
|  9> CHARGE_MEDIUM 0
| 10> MULT_MEDIUM 1
| 11> CHARGE_METHOD CHELPG
| 12> Use_QM_InfoFromPDB TRUE
| 13> Use_Active_InfoFromPDB TRUE END
| 14> *PDBFILE 0 1 input_orca.pdb                           ****END OF INPUT****
================================================================================

------------------------------------------------------------------------------

                             **************************
                             *    3-layered ONIOM     *
                             **************************


------------------------------------------------------------------------------




Multiscale model                       ... QM1/QM2/MM
QM2 method                             ... XTB2
Coupling Scheme                        ... subtractive
Embedding Scheme                       ... electrostatic
PrintLevel                             ... 5
Method for determining QM2 charges     ... CHELPG
Charge of medium (QM1+QM2) system      ... 0
Charge alteration scheme               ... Charge shifting
Scaling factor for CS scheme           ... 0.06
Gradient projection scheme             ... Lever rule
Scaling factor for QM2 charges         ... 1.00
AutoFF method                          ... XTB2
AutoFF boundary                        ... no covalent bonds
Point charges in QM calc. from MM atoms... 147
              from charge shift scheme ... 0
Point charges in QM2 calc. from MM atoms.. 0
              from charge shift scheme ... 0
Printing trajectories, xyz and allxyz files:
        QMMMRegion                     ... YES
        activeRegion                   ... YES
        activeRegionExt                ... NO
        qmRegion                       ... YES
        qm2Region                      ... YES
Parameter files:
        ORCA Forcefield Filename       ... hostguest.parm7.ORCAFF.prms
        QM-LA bond distances Filename  ... orca_qmm.H_DIST.prms.tmp
Forcefield type                        ... AMBER
Size of different subsystems (in atoms):
Size of QMMM System                    ... 162
Size of MM Subsystem                   ... 0
Size of QM1 Subsystem                  ... 15
Number of link atoms for QM1 subsystem ... 0
Size of QM1 Subsystem plus link atoms  ... 15
Size of QM2 Subsystem                  ... 147
Number of link atoms for QM2 subsystem ... 0
Size of QM1+QM2 subsystem plus LAs     ... 162
Size of region for optimizer           ... 162
        optimized atoms = activeRegion ... 162
        fixed atoms (distance cutoff)  ... 0 ( 1.0)
Composition of different systems (atoms start counting at 0):
QM1 Subsystem                          ... 147 148 149 150 151 152 153 154 155 156 
                                           157 158 159 160 161 
QM2 Subsystem                          ...   0   1   2   3   4   5   6   7   8   9 
                                            10  11  12  13  14  15  16  17  18  19 
                                            20  21  22  23  24  25  26  27  28  29 
                                            30  31  32  33  34  35  36  37  38  39 
                                            40  41  42  43  44  45  46  47  48  49 
                                            50  51  52  53  54  55  56  57  58  59 
                                            60  61  62  63  64  65  66  67  68  69 
                                            70  71  72  73  74  75  76  77  78  79 
                                            80  81  82  83  84  85  86  87  88  89 
                                            90  91  92  93  94  95  96  97  98  99 
                                           100 101 102 103 104 105 106 107 108 109 
                                           110 111 112 113 114 115 116 117 118 119 
                                           120 121 122 123 124 125 126 127 128 129 
                                           130 131 132 133 134 135 136 137 138 139 
                                           140 141 142 143 144 145 146 
Active atoms                           ... All atoms 
Constrain bonds and angle of MM waters ... NO

                       ****************************
                       * Single Point Calculation *
                       ****************************

                    ************************************                      
                    *      QM/   XTB2/MM SP Energy     *                      
                    ************************************                      




           ************************************************************
           *        Program running with 8 parallel MPI-processes     *
           *              working on a common directory               *
           ************************************************************
Process 2: 
---------------------------------- Process 2:  ----------------------------------
Process 2: 
---------------------------------- Process 2:  ----------------------------------
Process 2: 
---------------------------------- Process 2:  ----------------------------------
Process 2: 
---------------------------------- Process 2:  ----------------------------------
Process 2: 
---------------------------------- Process 2:  ----------------------------------
Process 2: 
---------------------------------- Process 2:  ----------------------------------

----------------------------------------------------------------------------
                                     MM                                         
------------------------------------------------------------------------------


Force Field is read from file          ... hostguest.parm7.ORCAFF.prms
Forcefield type                        ... AMBER
PrintLevel                             ... 1


Do energy calculation
Coulomb interaction settings:
   Dielectricity constant              ...        1.000
   1-4 scaling factor                  ...        0.833
   Force Shifting (Coulomb Interaction)... YES
Process 2: 
---------------------------------- Process 2:  ----------------------------------
       Coulomb CutOff                  ...       12.000 Ang.
   Force Switching (LJ Interaction)    ... YES
       LJ Inner CutOff                 ...       10.000 Ang.
       LJ Outer CutOff                 ...       12.000 Ang.
Do compute NB interaction for all atoms

-------------------------   ----------
MM Energy contributions:
Process 2: 
---------------------------------- Bond TermsProcess 2:  ----------------------------------
Process 2: 
--------------------------------- Process 2:  ----------------------------------
Process 2: 
--------------------------------- Process 2:  ----------------------------------
Process 2: 
--------------------------------- Process 2:  ----------------------------------
Bonds                         0.00000000
Process 2: 
--------------------------------- Angle TermsProcess 2:  ----------------------------------
Process 2: 
--------------------------------- Process 2:  ----------------------------------
Process 2: 
--------------------------------- Process 2:  ----------------------------------
Process 2: 
--------------------------------- Process 2:  ----------------------------------
Process 2: 
--------------------------------- Process 2:  ----------------------------------
Process 2: 
--------------------------- Process 2:  ---------------------------
Angles                        0.00000000
Process 2: 
--------------------------- Angle Urey-Bradley TermsProcess 2:  ---------------------------
Process 2: 
--------------------------- Process 2:  ---------------------------
Process 2: 
--------------------------- Process 2:  ---------------------------
Process 2: 
--------------------------- Process 2:  ---------------------------
Process 2: 
--------------------------- Process 2:  ---------------------------
Process 2: 
--------------------------- Process 2:  ---------------------------
Process 2: 
--------------------------- Process 2:  ---------------------------
Angles UB                     0.00000000
Process 2: 
-------------------------------- Dihedral TermsProcess 2:  --------------------------------
Process 2: 
-------------------------------- Process 2:  --------------------------------
Process 2: 
-------------------------------- Process 2:  --------------------------------
Process 2: 
-------------------------------- Process 2:  --------------------------------
Process 2: 
-------------------------------- Process 2:  --------------------------------
Process 2: 
-------------------------------- Process 2:  --------------------------------
Process 2: 
-------------------------------- Process 2:  --------------------------------
Process 2: 
-------------------------------- Process 2:  --------------------------------
Process 2: 
-------------------------------- Process 2:  --------------------------------
Process 2: 
-------------------------------- Process 2:  --------------------------------
Dihedrals                     0.00000000
Process 2: 
-------------------------------- Improper TermsProcess 2:  --------------------------------
Process 2: 
-------------------------------- Process 2:  --------------------------------
Process 2: 
-------------------------------- Process 2: 
-------------------------------- Process 2:  --------------------------------
Process 2: 
-------------------------------- Process 2:  --------------------------------
Process 2: 
-------------------------------- Process 2:  --------------------------------
Process 2:  --------------------------------
Process 2: 
-------------------------- Process 2:  --------------------------
Process 2: 
-------------------------- Process 2:  --------------------------
Process 2: 
-------------------------- Process 2:  --------------------------
Process 2: 
-------------------------- Process 2:  --------------------------
Impropers                     0.00000000
Process 2: 
-------------------------- LJ and Coulomb interactionProcess 2:  --------------------------
Process 2: 
-------------------------- Process 2:  --------------------------
Process 2: 
-------------------------- Process 2:  --------------------------
Process 2: 
-------------------------- Process 2:  --------------------------
LJ interaction                0.00000000
Coulomb interaction           0.00000000
-------------------------   ----------

-------------------------   --------------------
FINAL SINGLE POINT ENERGY (MM)        0.000000000000
-------------------------   --------------------

Total MM time               ....       0.080 sec
------------------------------------------------------------------------------
                          XTB2 - MEDIUM SYSTEM                        
------------------------------------------------------------------------------
DQMMM->charges:
	  0       0.000000
	  1       0.000000
	  2       0.000000
	  3       0.000000
	  4       0.000000
	  5       0.000000
	  6       0.000000
	  7       0.000000
	  8       0.000000
	  9       0.000000
	 10       0.000000
	 11       0.000000
	 12       0.000000
	 13       0.000000
	 14       0.000000
	 15       0.000000
	 16       0.000000
	 17       0.000000
	 18       0.000000
	 19       0.000000
	 20       0.000000
	 21       0.000000
	 22       0.000000
	 23       0.000000
	 24       0.000000
	 25       0.000000
	 26       0.000000
	 27       0.000000
	 28       0.000000
	 29       0.000000
	 30       0.000000
	 31       0.000000
	 32       0.000000
	 33       0.000000
	 34       0.000000
	 35       0.000000
	 36       0.000000
	 37       0.000000
	 38       0.000000
	 39       0.000000
	 40       0.000000
	 41       0.000000
	 42       0.000000
	 43       0.000000
	 44       0.000000
	 45       0.000000
	 46       0.000000
	 47       0.000000
	 48       0.000000
	 49       0.000000
	 50       0.000000
	 51       0.000000
	 52       0.000000
	 53       0.000000
	 54       0.000000
	 55       0.000000
	 56       0.000000
	 57       0.000000
	 58       0.000000
	 59       0.000000
	 60       0.000000
	 61       0.000000
	 62       0.000000
	 63       0.000000
	 64       0.000000
	 65       0.000000
	 66       0.000000
	 67       0.000000
	 68       0.000000
	 69       0.000000
	 70       0.000000
	 71       0.000000
	 72       0.000000
	 73       0.000000
	 74       0.000000
	 75       0.000000
	 76       0.000000
	 77       0.000000
	 78       0.000000
	 79       0.000000
	 80       0.000000
	 81       0.000000
	 82       0.000000
	 83       0.000000
	 84       0.000000
	 85       0.000000
	 86       0.000000
	 87       0.000000
	 88       0.000000
	 89       0.000000
	 90       0.000000
	 91       0.000000
	 92       0.000000
	 93       0.000000
	 94       0.000000
	 95       0.000000
	 96       0.000000
	 97       0.000000
	 98       0.000000
	 99       0.000000
	100       0.000000
	101       0.000000
	102       0.000000
	103       0.000000
	104       0.000000
	105       0.000000
	106       0.000000
	107       0.000000
	108       0.000000
	109       0.000000
	110       0.000000
	111       0.000000
	112       0.000000
	113       0.000000
	114       0.000000
	115       0.000000
	116       0.000000
	117       0.000000
	118       0.000000
	119       0.000000
	120       0.000000
	121       0.000000
	122       0.000000
	123       0.000000
	124       0.000000
	125       0.000000
	126       0.000000
	127       0.000000
	128       0.000000
	129       0.000000
	130       0.000000
	131       0.000000
	132       0.000000
	133       0.000000
	134       0.000000
	135       0.000000
	136       0.000000
	137       0.000000
	138       0.000000
	139       0.000000
	140       0.000000
	141       0.000000
	142       0.000000
	143       0.000000
	144       0.000000
	145       0.000000
	146       0.000000
	147       0.000000
	148       0.000000
	149       0.000000
	150       0.000000
	151       0.000000
	152       0.000000
	153       0.000000
	154       0.000000
	155       0.000000
	156       0.000000
	157       0.000000
	158       0.000000
	159       0.000000
	160       0.000000
	161       0.000000

DQMMM->charges2:
	  0       0.000000
	  1       0.000000
	  2       0.000000
	  3       0.000000
	  4       0.000000
	  5       0.000000
	  6       0.000000
	  7       0.000000
	  8       0.000000
	  9       0.000000
	 10       0.000000
	 11       0.000000
	 12       0.000000
	 13       0.000000
	 14       0.000000
	 15       0.000000
	 16       0.000000
	 17       0.000000
	 18       0.000000
	 19       0.000000
	 20       0.000000
	 21       0.000000
	 22       0.000000
	 23       0.000000
	 24       0.000000
	 25       0.000000
	 26       0.000000
	 27       0.000000
	 28       0.000000
	 29       0.000000
	 30       0.000000
	 31       0.000000
	 32       0.000000
	 33       0.000000
	 34       0.000000
	 35       0.000000
	 36       0.000000
	 37       0.000000
	 38       0.000000
	 39       0.000000
	 40       0.000000
	 41       0.000000
	 42       0.000000
	 43       0.000000
	 44       0.000000
	 45       0.000000
	 46       0.000000
	 47       0.000000
	 48       0.000000
	 49       0.000000
	 50       0.000000
	 51       0.000000
	 52       0.000000
	 53       0.000000
	 54       0.000000
	 55       0.000000
	 56       0.000000
	 57       0.000000
	 58       0.000000
	 59       0.000000
	 60       0.000000
	 61       0.000000
	 62       0.000000
	 63       0.000000
	 64       0.000000
	 65       0.000000
	 66       0.000000
	 67       0.000000
	 68       0.000000
	 69       0.000000
	 70       0.000000
	 71       0.000000
	 72       0.000000
	 73       0.000000
	 74       0.000000
	 75       0.000000
	 76       0.000000
	 77       0.000000
	 78       0.000000
	 79       0.000000
	 80       0.000000
	 81       0.000000
	 82       0.000000
	 83       0.000000
	 84       0.000000
	 85       0.000000
	 86       0.000000
	 87       0.000000
	 88       0.000000
	 89       0.000000
	 90       0.000000
	 91       0.000000
	 92       0.000000
	 93       0.000000
	 94       0.000000
	 95       0.000000
	 96       0.000000
	 97       0.000000
	 98       0.000000
	 99       0.000000
	100       0.000000
	101       0.000000
	102       0.000000
	103       0.000000
	104       0.000000
	105       0.000000
	106       0.000000
	107       0.000000
	108       0.000000
	109       0.000000
	110       0.000000
	111       0.000000
	112       0.000000
	113       0.000000
	114       0.000000
	115       0.000000
	116       0.000000
	117       0.000000
	118       0.000000
	119       0.000000
	120       0.000000
	121       0.000000
	122       0.000000
	123       0.000000
	124       0.000000
	125       0.000000
	126       0.000000
	127       0.000000
	128       0.000000
	129       0.000000
	130       0.000000
	131       0.000000
	132       0.000000
	133       0.000000
	134       0.000000
	135       0.000000
	136       0.000000
	137       0.000000
	138       0.000000
	139       0.000000
	140       0.000000
	141       0.000000
	142       0.000000
	143       0.000000
	144       0.000000
	145       0.000000
	146       0.000000
	147       0.000000
	148       0.000000
	149       0.000000
	150       0.000000
	151       0.000000
	152       0.000000
	153       0.000000
	154       0.000000
	155       0.000000
	156       0.000000
	157       0.000000
	158       0.000000
	159       0.000000
	160       0.000000
	161       0.000000

charges:
	  0       0.000000
	  1       0.000000
	  2       0.000000
	  3       0.000000
	  4       0.000000
	  5       0.000000
	  6       0.000000
	  7       0.000000
	  8       0.000000
	  9       0.000000
	 10       0.000000
	 11       0.000000
	 12       0.000000
	 13       0.000000
	 14       0.000000
	 15       0.000000
	 16       0.000000
	 17       0.000000
	 18       0.000000
	 19       0.000000
	 20       0.000000
	 21       0.000000
	 22       0.000000
	 23       0.000000
	 24       0.000000
	 25       0.000000
	 26       0.000000
	 27       0.000000
	 28       0.000000
	 29       0.000000
	 30       0.000000
	 31       0.000000
	 32       0.000000
	 33       0.000000
	 34       0.000000
	 35       0.000000
	 36       0.000000
	 37       0.000000
	 38       0.000000
	 39       0.000000
	 40       0.000000
	 41       0.000000
	 42       0.000000
	 43       0.000000
	 44       0.000000
	 45       0.000000
	 46       0.000000
	 47       0.000000
	 48       0.000000
	 49       0.000000
	 50       0.000000
	 51       0.000000
	 52       0.000000
	 53       0.000000
	 54       0.000000
	 55       0.000000
	 56       0.000000
	 57       0.000000
	 58       0.000000
	 59       0.000000
	 60       0.000000
	 61       0.000000
	 62       0.000000
	 63       0.000000
	 64       0.000000
	 65       0.000000
	 66       0.000000
	 67       0.000000
	 68       0.000000
	 69       0.000000
	 70       0.000000
	 71       0.000000
	 72       0.000000
	 73       0.000000
	 74       0.000000
	 75       0.000000
	 76       0.000000
	 77       0.000000
	 78       0.000000
	 79       0.000000
	 80       0.000000
	 81       0.000000
	 82       0.000000
	 83       0.000000
	 84       0.000000
	 85       0.000000
	 86       0.000000
	 87       0.000000
	 88       0.000000
	 89       0.000000
	 90       0.000000
	 91       0.000000
	 92       0.000000
	 93       0.000000
	 94       0.000000
	 95       0.000000
	 96       0.000000
	 97       0.000000
	 98       0.000000
	 99       0.000000
	100       0.000000
	101       0.000000
	102       0.000000
	103       0.000000
	104       0.000000
	105       0.000000
	106       0.000000
	107       0.000000
	108       0.000000
	109       0.000000
	110       0.000000
	111       0.000000
	112       0.000000
	113       0.000000
	114       0.000000
	115       0.000000
	116       0.000000
	117       0.000000
	118       0.000000
	119       0.000000
	120       0.000000
	121       0.000000
	122       0.000000
	123       0.000000
	124       0.000000
	125       0.000000
	126       0.000000
	127       0.000000
	128       0.000000
	129       0.000000
	130       0.000000
	131       0.000000
	132       0.000000
	133       0.000000
	134       0.000000
	135       0.000000
	136       0.000000
	137       0.000000
	138       0.000000
	139       0.000000
	140       0.000000
	141       0.000000
	142       0.000000
	143       0.000000
	144       0.000000
	145       0.000000
	146       0.000000
	147       0.000000
	148       0.000000
	149       0.000000
	150       0.000000
	151       0.000000
	152       0.000000
	153       0.000000
	154       0.000000
	155       0.000000
	156       0.000000
	157       0.000000
	158       0.000000
	159       0.000000
	160       0.000000
	161       0.000000

after printout:
Running XTB calculation
---------------------------------   --------------------
FINAL SINGLE POINT ENERGY (M-QM2)     -285.524009314720
---------------------------------   --------------------
DQMMM->chargesbefore:
	  0       0.000000
	  1       0.000000
	  2       0.000000
	  3       0.000000
	  4       0.000000
	  5       0.000000
	  6       0.000000
	  7       0.000000
	  8       0.000000
	  9       0.000000
	 10       0.000000
	 11       0.000000
	 12       0.000000
	 13       0.000000
	 14       0.000000
	 15       0.000000
	 16       0.000000
	 17       0.000000
	 18       0.000000
	 19       0.000000
	 20       0.000000
	 21       0.000000
	 22       0.000000
	 23       0.000000
	 24       0.000000
	 25       0.000000
	 26       0.000000
	 27       0.000000
	 28       0.000000
	 29       0.000000
	 30       0.000000
	 31       0.000000
	 32       0.000000
	 33       0.000000
	 34       0.000000
	 35       0.000000
	 36       0.000000
	 37       0.000000
	 38       0.000000
	 39       0.000000
	 40       0.000000
	 41       0.000000
	 42       0.000000
	 43       0.000000
	 44       0.000000
	 45       0.000000
	 46       0.000000
	 47       0.000000
	 48       0.000000
	 49       0.000000
	 50       0.000000
	 51       0.000000
	 52       0.000000
	 53       0.000000
	 54       0.000000
	 55       0.000000
	 56       0.000000
	 57       0.000000
	 58       0.000000
	 59       0.000000
	 60       0.000000
	 61       0.000000
	 62       0.000000
	 63       0.000000
	 64       0.000000
	 65       0.000000
	 66       0.000000
	 67       0.000000
	 68       0.000000
	 69       0.000000
	 70       0.000000
	 71       0.000000
	 72       0.000000
	 73       0.000000
	 74       0.000000
	 75       0.000000
	 76       0.000000
	 77       0.000000
	 78       0.000000
	 79       0.000000
	 80       0.000000
	 81       0.000000
	 82       0.000000
	 83       0.000000
	 84       0.000000
	 85       0.000000
	 86       0.000000
	 87       0.000000
	 88       0.000000
	 89       0.000000
	 90       0.000000
	 91       0.000000
	 92       0.000000
	 93       0.000000
	 94       0.000000
	 95       0.000000
	 96       0.000000
	 97       0.000000
	 98       0.000000
	 99       0.000000
	100       0.000000
	101       0.000000
	102       0.000000
	103       0.000000
	104       0.000000
	105       0.000000
	106       0.000000
	107       0.000000
	108       0.000000
	109       0.000000
	110       0.000000
	111       0.000000
	112       0.000000
	113       0.000000
	114       0.000000
	115       0.000000
	116       0.000000
	117       0.000000
	118       0.000000
	119       0.000000
	120       0.000000
	121       0.000000
	122       0.000000
	123       0.000000
	124       0.000000
	125       0.000000
	126       0.000000
	127       0.000000
	128       0.000000
	129       0.000000
	130       0.000000
	131       0.000000
	132       0.000000
	133       0.000000
	134       0.000000
	135       0.000000
	136       0.000000
	137       0.000000
	138       0.000000
	139       0.000000
	140       0.000000
	141       0.000000
	142       0.000000
	143       0.000000
	144       0.000000
	145       0.000000
	146       0.000000
	147       0.000000
	148       0.000000
	149       0.000000
	150       0.000000
	151       0.000000
	152       0.000000
	153       0.000000
	154       0.000000
	155       0.000000
	156       0.000000
	157       0.000000
	158       0.000000
	159       0.000000
	160       0.000000
	161       0.000000

DQMMM->charges2before:
	  0       0.000000
	  1       0.000000
	  2       0.000000
	  3       0.000000
	  4       0.000000
	  5       0.000000
	  6       0.000000
	  7       0.000000
	  8       0.000000
	  9       0.000000
	 10       0.000000
	 11       0.000000
	 12       0.000000
	 13       0.000000
	 14       0.000000
	 15       0.000000
	 16       0.000000
	 17       0.000000
	 18       0.000000
	 19       0.000000
	 20       0.000000
	 21       0.000000
	 22       0.000000
	 23       0.000000
	 24       0.000000
	 25       0.000000
	 26       0.000000
	 27       0.000000
	 28       0.000000
	 29       0.000000
	 30       0.000000
	 31       0.000000
	 32       0.000000
	 33       0.000000
	 34       0.000000
	 35       0.000000
	 36       0.000000
	 37       0.000000
	 38       0.000000
	 39       0.000000
	 40       0.000000
	 41       0.000000
	 42       0.000000
	 43       0.000000
	 44       0.000000
	 45       0.000000
	 46       0.000000
	 47       0.000000
	 48       0.000000
	 49       0.000000
	 50       0.000000
	 51       0.000000
	 52       0.000000
	 53       0.000000
	 54       0.000000
	 55       0.000000
	 56       0.000000
	 57       0.000000
	 58       0.000000
	 59       0.000000
	 60       0.000000
	 61       0.000000
	 62       0.000000
	 63       0.000000
	 64       0.000000
	 65       0.000000
	 66       0.000000
	 67       0.000000
	 68       0.000000
	 69       0.000000
	 70       0.000000
	 71       0.000000
	 72       0.000000
	 73       0.000000
	 74       0.000000
	 75       0.000000
	 76       0.000000
	 77       0.000000
	 78       0.000000
	 79       0.000000
	 80       0.000000
	 81       0.000000
	 82       0.000000
	 83       0.000000
	 84       0.000000
	 85       0.000000
	 86       0.000000
	 87       0.000000
	 88       0.000000
	 89       0.000000
	 90       0.000000
	 91       0.000000
	 92       0.000000
	 93       0.000000
	 94       0.000000
	 95       0.000000
	 96       0.000000
	 97       0.000000
	 98       0.000000
	 99       0.000000
	100       0.000000
	101       0.000000
	102       0.000000
	103       0.000000
	104       0.000000
	105       0.000000
	106       0.000000
	107       0.000000
	108       0.000000
	109       0.000000
	110       0.000000
	111       0.000000
	112       0.000000
	113       0.000000
	114       0.000000
	115       0.000000
	116       0.000000
	117       0.000000
	118       0.000000
	119       0.000000
	120       0.000000
	121       0.000000
	122       0.000000
	123       0.000000
	124       0.000000
	125       0.000000
	126       0.000000
	127       0.000000
	128       0.000000
	129       0.000000
	130       0.000000
	131       0.000000
	132       0.000000
	133       0.000000
	134       0.000000
	135       0.000000
	136       0.000000
	137       0.000000
	138       0.000000
	139       0.000000
	140       0.000000
	141       0.000000
	142       0.000000
	143       0.000000
	144       0.000000
	145       0.000000
	146       0.000000
	147       0.000000
	148       0.000000
	149       0.000000
	150       0.000000
	151       0.000000
	152       0.000000
	153       0.000000
	154       0.000000
	155       0.000000
	156       0.000000
	157       0.000000
	158       0.000000
	159       0.000000
	160       0.000000
	161       0.000000

DQMMM->chargesMMbefore:
	  0       0.042700
	  1       0.161000
	  2      -0.322900
	  3       0.137600
	  4       0.065000
	  5      -0.634600
	  6       0.436600
	  7       0.122400
	  8       0.177900
	  9      -0.620000
	 10       0.422000
	 11       0.040100
	 12       0.159500
	 13       0.019300
	 14       0.115600
	 15      -0.366800
	 16       0.191800
	 17       0.025400
	 18       0.025400
	 19      -0.607700
	 20       0.409700
	 21       0.042700
	 22       0.161000
	 23      -0.322900
	 24       0.137600
	 25       0.065000
	 26      -0.634600
	 27       0.436600
	 28       0.122400
	 29       0.177900
	 30      -0.620000
	 31       0.422000
	 32       0.040100
	 33       0.159500
	 34       0.019300
	 35       0.115600
	 36      -0.366800
	 37       0.191800
	 38       0.025400
	 39       0.025400
	 40      -0.607700
	 41       0.409700
	 42       0.042700
	 43       0.161000
	 44      -0.322900
	 45       0.137600
	 46       0.065000
	 47      -0.634600
	 48       0.436600
	 49       0.122400
	 50       0.177900
	 51      -0.620000
	 52       0.422000
	 53       0.040100
	 54       0.159500
	 55       0.019300
	 56       0.115600
	 57      -0.366800
	 58       0.191800
	 59       0.025400
	 60       0.025400
	 61      -0.607700
	 62       0.409700
	 63       0.042700
	 64       0.161000
	 65      -0.322900
	 66       0.137600
	 67       0.065000
	 68      -0.634600
	 69       0.436600
	 70       0.122400
	 71       0.177900
	 72      -0.620000
	 73       0.422000
	 74       0.040100
	 75       0.159500
	 76       0.019300
	 77       0.115600
	 78      -0.366800
	 79       0.191800
	 80       0.025400
	 81       0.025400
	 82      -0.607700
	 83       0.409700
	 84       0.042700
	 85       0.161000
	 86      -0.322900
	 87       0.137600
	 88       0.065000
	 89      -0.634600
	 90       0.436600
	 91       0.122400
	 92       0.177900
	 93      -0.620000
	 94       0.422000
	 95       0.040100
	 96       0.159500
	 97       0.019300
	 98       0.115600
	 99      -0.366800
	100       0.191800
	101       0.025400
	102       0.025400
	103      -0.607700
	104       0.409700
	105       0.042700
	106       0.161000
	107      -0.322900
	108       0.137600
	109       0.065000
	110      -0.634600
	111       0.436600
	112       0.122400
	113       0.177900
	114      -0.620000
	115       0.422000
	116       0.040100
	117       0.159500
	118       0.019300
	119       0.115600
	120      -0.366800
	121       0.191800
	122       0.025400
	123       0.025400
	124      -0.607700
	125       0.409700
	126       0.042700
	127       0.161000
	128      -0.322900
	129       0.137600
	130       0.065000
	131      -0.634600
	132       0.436600
	133       0.122400
	134       0.177900
	135      -0.620000
	136       0.422000
	137       0.040100
	138       0.159500
	139       0.019300
	140       0.115600
	141      -0.366800
	142       0.191800
	143       0.025400
	144       0.025400
	145      -0.607700
	146       0.409700
	147       0.037240
	148       0.169054
	149       0.288346
	150      -0.727087
	151       0.173758
	152      -0.372658
	153       0.288171
	154       0.129811
	155      -0.410044
	156       0.325009
	157       0.218917
	158      -1.028510
	159       0.292591
	160       0.350302
	161       0.265102

done
isQM2used:
	  0         1     
	  1         1     
	  2         1     
	  3         1     
	  4         1     
	  5         1     
	  6         1     
	  7         1     
	  8         1     
	  9         1     
	 10         1     
	 11         1     
	 12         1     
	 13         1     
	 14         1     
	 15         1     
	 16         1     
	 17         1     
	 18         1     
	 19         1     
	 20         1     
	 21         1     
	 22         1     
	 23         1     
	 24         1     
	 25         1     
	 26         1     
	 27         1     
	 28         1     
	 29         1     
	 30         1     
	 31         1     
	 32         1     
	 33         1     
	 34         1     
	 35         1     
	 36         1     
	 37         1     
	 38         1     
	 39         1     
	 40         1     
	 41         1     
	 42         1     
	 43         1     
	 44         1     
	 45         1     
	 46         1     
	 47         1     
	 48         1     
	 49         1     
	 50         1     
	 51         1     
	 52         1     
	 53         1     
	 54         1     
	 55         1     
	 56         1     
	 57         1     
	 58         1     
	 59         1     
	 60         1     
	 61         1     
	 62         1     
	 63         1     
	 64         1     
	 65         1     
	 66         1     
	 67         1     
	 68         1     
	 69         1     
	 70         1     
	 71         1     
	 72         1     
	 73         1     
	 74         1     
	 75         1     
	 76         1     
	 77         1     
	 78         1     
	 79         1     
	 80         1     
	 81         1     
	 82         1     
	 83         1     
	 84         1     
	 85         1     
	 86         1     
	 87         1     
	 88         1     
	 89         1     
	 90         1     
	 91         1     
	 92         1     
	 93         1     
	 94         1     
	 95         1     
	 96         1     
	 97         1     
	 98         1     
	 99         1     
	100         1     
	101         1     
	102         1     
	103         1     
	104         1     
	105         1     
	106         1     
	107         1     
	108         1     
	109         1     
	110         1     
	111         1     
	112         1     
	113         1     
	114         1     
	115         1     
	116         1     
	117         1     
	118         1     
	119         1     
	120         1     
	121         1     
	122         1     
	123         1     
	124         1     
	125         1     
	126         1     
	127         1     
	128         1     
	129         1     
	130         1     
	131         1     
	132         1     
	133         1     
	134         1     
	135         1     
	136         1     
	137         1     
	138         1     
	139         1     
	140         1     
	141         1     
	142         1     
	143         1     
	144         1     
	145         1     
	146         1     
	147         0     
	148         0     
	149         0     
	150         0     
	151         0     
	152         0     
	153         0     
	154         0     
	155         0     
	156         0     
	157         0     
	158         0     
	159         0     
	160         0     
	161         0     

isQM1used:
	  0         0     
	  1         0     
	  2         0     
	  3         0     
	  4         0     
	  5         0     
	  6         0     
	  7         0     
	  8         0     
	  9         0     
	 10         0     
	 11         0     
	 12         0     
	 13         0     
	 14         0     
	 15         0     
	 16         0     
	 17         0     
	 18         0     
	 19         0     
	 20         0     
	 21         0     
	 22         0     
	 23         0     
	 24         0     
	 25         0     
	 26         0     
	 27         0     
	 28         0     
	 29         0     
	 30         0     
	 31         0     
	 32         0     
	 33         0     
	 34         0     
	 35         0     
	 36         0     
	 37         0     
	 38         0     
	 39         0     
	 40         0     
	 41         0     
	 42         0     
	 43         0     
	 44         0     
	 45         0     
	 46         0     
	 47         0     
	 48         0     
	 49         0     
	 50         0     
	 51         0     
	 52         0     
	 53         0     
	 54         0     
	 55         0     
	 56         0     
	 57         0     
	 58         0     
	 59         0     
	 60         0     
	 61         0     
	 62         0     
	 63         0     
	 64         0     
	 65         0     
	 66         0     
	 67         0     
	 68         0     
	 69         0     
	 70         0     
	 71         0     
	 72         0     
	 73         0     
	 74         0     
	 75         0     
	 76         0     
	 77         0     
	 78         0     
	 79         0     
	 80         0     
	 81         0     
	 82         0     
	 83         0     
	 84         0     
	 85         0     
	 86         0     
	 87         0     
	 88         0     
	 89         0     
	 90         0     
	 91         0     
	 92         0     
	 93         0     
	 94         0     
	 95         0     
	 96         0     
	 97         0     
	 98         0     
	 99         0     
	100         0     
	101         0     
	102         0     
	103         0     
	104         0     
	105         0     
	106         0     
	107         0     
	108         0     
	109         0     
	110         0     
	111         0     
	112         0     
	113         0     
	114         0     
	115         0     
	116         0     
	117         0     
	118         0     
	119         0     
	120         0     
	121         0     
	122         0     
	123         0     
	124         0     
	125         0     
	126         0     
	127         0     
	128         0     
	129         0     
	130         0     
	131         0     
	132         0     
	133         0     
	134         0     
	135         0     
	136         0     
	137         0     
	138         0     
	139         0     
	140         0     
	141         0     
	142         0     
	143         0     
	144         0     
	145         0     
	146         0     
	147         1     
	148         1     
	149         1     
	150         1     
	151         1     
	152         1     
	153         1     
	154         1     
	155         1     
	156         1     
	157         1     
	158         1     
	159         1     
	160         1     
	161         1     

isMMused:
	  0         0     
	  1         0     
	  2         0     
	  3         0     
	  4         0     
	  5         0     
	  6         0     
	  7         0     
	  8         0     
	  9         0     
	 10         0     
	 11         0     
	 12         0     
	 13         0     
	 14         0     
	 15         0     
	 16         0     
	 17         0     
	 18         0     
	 19         0     
	 20         0     
	 21         0     
	 22         0     
	 23         0     
	 24         0     
	 25         0     
	 26         0     
	 27         0     
	 28         0     
	 29         0     
	 30         0     
	 31         0     
	 32         0     
	 33         0     
	 34         0     
	 35         0     
	 36         0     
	 37         0     
	 38         0     
	 39         0     
	 40         0     
	 41         0     
	 42         0     
	 43         0     
	 44         0     
	 45         0     
	 46         0     
	 47         0     
	 48         0     
	 49         0     
	 50         0     
	 51         0     
	 52         0     
	 53         0     
	 54         0     
	 55         0     
	 56         0     
	 57         0     
	 58         0     
	 59         0     
	 60         0     
	 61         0     
	 62         0     
	 63         0     
	 64         0     
	 65         0     
	 66         0     
	 67         0     
	 68         0     
	 69         0     
	 70         0     
	 71         0     
	 72         0     
	 73         0     
	 74         0     
	 75         0     
	 76         0     
	 77         0     
	 78         0     
	 79         0     
	 80         0     
	 81         0     
	 82         0     
	 83         0     
	 84         0     
	 85         0     
	 86         0     
	 87         0     
	 88         0     
	 89         0     
	 90         0     
	 91         0     
	 92         0     
	 93         0     
	 94         0     
	 95         0     
	 96         0     
	 97         0     
	 98         0     
	 99         0     
	100         0     
	101         0     
	102         0     
	103         0     
	104         0     
	105         0     
	106         0     
	107         0     
	108         0     
	109         0     
	110         0     
	111         0     
	112         0     
	113         0     
	114         0     
	115         0     
	116         0     
	117         0     
	118         0     
	119         0     
	120         0     
	121         0     
	122         0     
	123         0     
	124         0     
	125         0     
	126         0     
	127         0     
	128         0     
	129         0     
	130         0     
	131         0     
	132         0     
	133         0     
	134         0     
	135         0     
	136         0     
	137         0     
	138         0     
	139         0     
	140         0     
	141         0     
	142         0     
	143         0     
	144         0     
	145         0     
	146         0     
	147         0     
	148         0     
	149         0     
	150         0     
	151         0     
	152         0     
	153         0     
	154         0     
[...]
  22   0.0000       0.099811         2.7160 
  23   0.0000       0.129548         3.5252 
  24   0.0000       0.142408         3.8751 
  25   0.0000       0.161606         4.3975 
  26   0.0000       0.172284         4.6881 
  27   0.0000       0.181380         4.9356 
  28   0.0000       0.197174         5.3654 
  29   0.0000       0.205471         5.5912 
  30   0.0000       0.215326         5.8593 
  31   0.0000       0.243904         6.6370 
  32   0.0000       0.270677         7.3655 
  33   0.0000       0.280443         7.6312 
  34   0.0000       0.307809         8.3759 
  35   0.0000       0.500587        13.6217 
  36   0.0000       0.540388        14.7047 
  37   0.0000       0.544167        14.8075 
  38   0.0000       0.555251        15.1092 
  39   0.0000       0.600295        16.3349 
  40   0.0000       0.624666        16.9980 
  41   0.0000       0.652903        17.7664 
  42   0.0000       0.665978        18.1222 
  43   0.0000       0.705721        19.2036 
  44   0.0000       0.713227        19.4079 
  45   0.0000       0.763225        20.7684 
  46   0.0000       0.798642        21.7321 
  47   0.0000       0.820167        22.3179 
  48   0.0000       0.830039        22.5865 
  49   0.0000       0.861502        23.4426 
  50   0.0000       0.873553        23.7706 
  51   0.0000       0.879518        23.9329 
  52   0.0000       0.906717        24.6730 
  53   0.0000       0.933423        25.3997 
  54   0.0000       0.947276        25.7767 
  55   0.0000       0.953084        25.9347 
  56   0.0000       0.979185        26.6450 
  57   0.0000       1.011911        27.5355 
  58   0.0000       1.021115        27.7859 
  59   0.0000       1.065172        28.9848 
  60   0.0000       1.172774        31.9128 
  61   0.0000       1.217899        33.1407 
  62   0.0000       1.304341        35.4929 
  63   0.0000       1.311932        35.6995 
  64   0.0000       1.440896        39.2088 
  65   0.0000       1.498060        40.7643 
  66   0.0000       1.527082        41.5540 
  67   0.0000       1.606717        43.7210 
  68   0.0000       1.629179        44.3322 
  69   0.0000       1.673091        45.5271 
  70   0.0000       1.696400        46.1614 
  71   0.0000       1.762126        47.9499 
  72   0.0000       1.790618        48.7252 
  73   0.0000       1.813384        49.3447 
  74   0.0000       1.876643        51.0661 
  75   0.0000       1.922105        52.3031 
  76   0.0000       1.941394        52.8280 
  77   0.0000       1.952982        53.1434 
  78   0.0000       2.015085        54.8332 
  79   0.0000       2.059985        56.0551 
  80   0.0000       2.096566        57.0505 
  81   0.0000       2.113080        57.4998 
  82   0.0000       2.126932        57.8768 
  83   0.0000       2.162300        58.8392 
  84   0.0000       2.179694        59.3125 
  85   0.0000       2.232169        60.7404 
  86   0.0000       2.262062        61.5538 
  87   0.0000       2.285215        62.1839 
  88   0.0000       2.296300        62.4855 
  89   0.0000       2.315140        62.9982 
  90   0.0000       2.366129        64.3856 
  91   0.0000       2.408961        65.5512 
  92   0.0000       2.434415        66.2438 
  93   0.0000       2.455326        66.8128 
  94   0.0000       2.514057        68.4110 
  95   0.0000       2.582959        70.2859 
  96   0.0000       2.588736        70.4431 
  97   0.0000       2.650192        72.1154 
  98   0.0000       2.673537        72.7506 
  99   0.0000       2.709912        73.7404 
 100   0.0000       2.756180        74.9995 
 101   0.0000       2.788709        75.8846 
 102   0.0000       2.824410        76.8561 
 103   0.0000       2.835468        77.1570 
 104   0.0000       2.851263        77.5868 
 105   0.0000       2.881122        78.3993 
 106   0.0000       2.918073        79.4048 
 107   0.0000       2.925959        79.6194 
 108   0.0000       2.985375        81.2362 
 109   0.0000       3.029684        82.4419 
 110   0.0000       3.200427        87.0880 
 111   0.0000       3.257329        88.6364 
 112   0.0000       3.316401        90.2439 
 113   0.0000       3.359649        91.4207 
 114   0.0000       3.406252        92.6888 
 115   0.0000       3.444250        93.7228 
 116   0.0000       3.471674        94.4691 
 117   0.0000       3.514651        95.6385 
 118   0.0000       3.542467        96.3954 
 119   0.0000       3.614529        98.3563 

                    ********************************
                    * MULLIKEN POPULATION ANALYSIS *
                    ********************************

-----------------------
MULLIKEN ATOMIC CHARGES
-----------------------
   0 C :    0.071488
   1 H :    0.065883
   2 H :    0.057955
   3 O :   -0.554660
   4 H :    0.352972
   5 C :   -0.179763
   6 H :    0.085848
   7 H :    0.099661
   8 C :   -0.181087
   9 H :    0.091084
  10 H :    0.102082
  11 C :   -0.320735
  12 H :    0.101322
  13 H :    0.102999
  14 H :    0.104951
Sum of atomic charges:    0.0000000

--------------------------------
MULLIKEN REDUCED ORBITAL CHARGES
--------------------------------
  0 C s       :     3.104746  s :     3.104746
      pz      :     1.007988  p :     2.747435
      px      :     1.011589
      py      :     0.727857
      dz2     :     0.015282  d :     0.076331
      dxz     :     0.004658
      dyz     :     0.014608
      dx2y2   :     0.021910
      dxy     :     0.019873
  1 H s       :     0.923455  s :     0.923455
      pz      :     0.002816  p :     0.010662
      px      :     0.006203
      py      :     0.001643
  2 H s       :     0.930809  s :     0.930809
      pz      :     0.006379  p :     0.011236
      px      :     0.002594
      py      :     0.002263
  3 O s       :     3.817519  s :     3.817519
      pz      :     1.499458  p :     4.711677
      px      :     1.882745
      py      :     1.329474
      dz2     :     0.008258  d :     0.025464
      dxz     :     0.001893
      dyz     :     0.006162
      dx2y2   :     0.004794
      dxy     :     0.004358
  4 H s       :     0.607658  s :     0.607658
      pz      :     0.020061  p :     0.039370
      px      :     0.010233
      py      :     0.009076
  5 C s       :     3.211882  s :     3.211882
      pz      :     1.006405  p :     2.929054
      px      :     0.994202
      py      :     0.928447
      dz2     :     0.011940  d :     0.038827
      dxz     :     0.004084
      dyz     :     0.005154
      dx2y2   :     0.008791
      dxy     :     0.008858
  6 H s       :     0.902876  s :     0.902876
      pz      :     0.002467  p :     0.011276
      px      :     0.006161
      py      :     0.002648
  7 H s       :     0.888887  s :     0.888887
      pz      :     0.006695  p :     0.011451
      px      :     0.002340
      py      :     0.002416
  8 C s       :     3.225531  s :     3.225531
      pz      :     0.945043  p :     2.918023
      px      :     1.016588
      py      :     0.956392
      dz2     :     0.006463  d :     0.037533
      dxz     :     0.008743
      dyz     :     0.008108
      dx2y2   :     0.008945
      dxy     :     0.005275
  9 H s       :     0.897486  s :     0.897486
      pz      :     0.003594  p :     0.011430
      px      :     0.004521
      py      :     0.003315
 10 H s       :     0.886355  s :     0.886355
      pz      :     0.003073  p :     0.011563
      px      :     0.005751
      py      :     0.002739
 11 C s       :     3.244514  s :     3.244514
      pz      :     0.965945  p :     3.045131
      px      :     1.054318
      py      :     1.024867
      dz2     :     0.005670  d :     0.031089
      dxz     :     0.010619
      dyz     :     0.004909
      dx2y2   :     0.007581
      dxy     :     0.002310
 12 H s       :     0.887039  s :     0.887039
      pz      :     0.003501  p :     0.011639
      px      :     0.005531
      py      :     0.002607
 13 H s       :     0.885448  s :     0.885448
      pz      :     0.004021  p :     0.011553
      px      :     0.004430
      py      :     0.003102
 14 H s       :     0.883558  s :     0.883558
      pz      :     0.002291  p :     0.011491
      px      :     0.002709
      py      :     0.006492


                     *******************************
                     * LOEWDIN POPULATION ANALYSIS *
                     *******************************

----------------------
LOEWDIN ATOMIC CHARGES
----------------------
   0 C :   -0.028744
   1 H :    0.040502
   2 H :    0.039754
   3 O :   -0.255276
   4 H :    0.199009
   5 C :   -0.137989
   6 H :    0.060711
   7 H :    0.071157
   8 C :   -0.123063
   9 H :    0.067847
  10 H :    0.069908
  11 C :   -0.211146
  12 H :    0.065926
  13 H :    0.066329
  14 H :    0.075076

-------------------------------
LOEWDIN REDUCED ORBITAL CHARGES
-------------------------------
  0 C s       :     2.856178  s :     2.856178
      pz      :     1.066890  p :     2.998728
      px      :     1.063900
      py      :     0.867937
      dz2     :     0.032766  d :     0.173839
      dxz     :     0.010617
      dyz     :     0.033687
      dx2y2   :     0.047269
      dxy     :     0.049500
  1 H s       :     0.921929  s :     0.921929
      pz      :     0.008878  p :     0.037568
      px      :     0.022711
      py      :     0.005979
  2 H s       :     0.922610  s :     0.922610
      pz      :     0.023327  p :     0.037636
      px      :     0.007104
      py      :     0.007204
  3 O s       :     3.465041  s :     3.465041
      pz      :     1.502768  p :     4.737582
      px      :     1.858254
      py      :     1.376560
      dz2     :     0.014042  d :     0.052653
      dxz     :     0.001390
      dyz     :     0.014725
      dx2y2   :     0.012165
      dxy     :     0.010331
  4 H s       :     0.683771  s :     0.683771
      pz      :     0.062651  p :     0.117219
      px      :     0.030806
      py      :     0.023762
  5 C s       :     2.896853  s :     2.896853
      pz      :     1.068722  p :     3.155307
      px      :     1.061482
      py      :     1.025103
      dz2     :     0.024663  d :     0.085829
      dxz     :     0.009457
      dyz     :     0.011527
      dx2y2   :     0.020846
      dxy     :     0.019337
  6 H s       :     0.900990  s :     0.900990
      pz      :     0.007401  p :     0.038299
      px      :     0.022366
      py      :     0.008532
  7 H s       :     0.890639  s :     0.890639
      pz      :     0.023946  p :     0.038204
      px      :     0.007006
      py      :     0.007252
  8 C s       :     2.900338  s :     2.900338
      pz      :     1.032416  p :     3.143083
      px      :     1.076412
      py      :     1.034255
      dz2     :     0.015458  d :     0.079642
      dxz     :     0.016242
      dyz     :     0.017777
      dx2y2   :     0.019747
      dxy     :     0.010418
  9 H s       :     0.894047  s :     0.894047
      pz      :     0.011903  p :     0.038106
      px      :     0.015549
      py      :     0.010654
 10 H s       :     0.891655  s :     0.891655
      pz      :     0.009555  p :     0.038437
      px      :     0.020994
      py      :     0.007887
 11 C s       :     2.921150  s :     2.921150
      pz      :     1.040791  p :     3.228237
      px      :     1.108966
      py      :     1.078480
      dz2     :     0.012607  d :     0.061759
      dxz     :     0.019952
      dyz     :     0.010880
      dx2y2   :     0.014043
      dxy     :     0.004277
 12 H s       :     0.895069  s :     0.895069
      pz      :     0.012098  p :     0.039006
      px      :     0.019701
      py      :     0.007207
 13 H s       :     0.894540  s :     0.894540
      pz      :     0.013974  p :     0.039132
      px      :     0.014753
      py      :     0.010405
 14 H s       :     0.886602  s :     0.886602
      pz      :     0.006777  p :     0.038322
      px      :     0.007750
      py      :     0.023795


                      *****************************
                      * MAYER POPULATION ANALYSIS *
                      *****************************

  NA   - Mulliken gross atomic population
  ZA   - Total nuclear charge
  QA   - Mulliken gross atomic charge
  VA   - Mayer's total valence
  BVA  - Mayer's bonded valence
  FA   - Mayer's free valence

  ATOM       NA         ZA         QA         VA         BVA        FA
  0 C      5.9285     6.0000     0.0715     3.8842     3.8842     0.0000
  1 H      0.9341     1.0000     0.0659     0.9457     0.9457    -0.0000
  2 H      0.9420     1.0000     0.0580     0.9525     0.9525     0.0000
  3 O      8.5547     8.0000    -0.5547     1.8845     1.8845     0.0000
  4 H      0.6470     1.0000     0.3530     0.8723     0.8723    -0.0000
  5 C      6.1798     6.0000    -0.1798     3.8802     3.8802    -0.0000
  6 H      0.9142     1.0000     0.0858     0.9614     0.9614     0.0000
  7 H      0.9003     1.0000     0.0997     0.9509     0.9509    -0.0000
  8 C      6.1811     6.0000    -0.1811     3.9106     3.9106     0.0000
  9 H      0.9089     1.0000     0.0911     0.9529     0.9529    -0.0000
 10 H      0.8979     1.0000     0.1021     0.9489     0.9489     0.0000
 11 C      6.3207     6.0000    -0.3207     3.9038     3.9038    -0.0000
 12 H      0.8987     1.0000     0.1013     0.9508     0.9508    -0.0000
 13 H      0.8970     1.0000     0.1030     0.9570     0.9570     0.0000
 14 H      0.8950     1.0000     0.1050     0.9539     0.9539     0.0000

  Mayer bond orders larger than 0.100000
B(  0-C ,  1-H ) :   0.9384 B(  0-C ,  2-H ) :   0.9559 B(  0-C ,  3-O ) :   0.9830 
B(  0-C ,  5-C ) :   1.0077 B(  3-O ,  4-H ) :   0.8649 B(  5-C ,  6-H ) :   0.9538 
B(  5-C ,  7-H ) :   0.9511 B(  5-C ,  8-C ) :   0.9955 B(  8-C ,  9-H ) :   0.9577 
B(  8-C , 10-H ) :   0.9530 B(  8-C , 11-C ) :   1.0102 B( 11-C , 12-H ) :   0.9662 
B( 11-C , 13-H ) :   0.9622 B( 11-C , 14-H ) :   0.9643 

-------
TIMINGS
-------

Total SCF time: 0 days 0 hours 0 min 14 sec 

Total time                  ....      14.628 sec
Sum of individual times     ....      14.258 sec  ( 97.5%)

Fock matrix formation       ....      12.373 sec  ( 84.6%)
  Split-RI-J                ....       1.367 sec  ( 11.0% of F)
  Chain of spheres X        ....       8.819 sec  ( 71.3% of F)
  XC integration            ....       2.141 sec  ( 17.3% of F)
    Basis function eval.    ....       0.895 sec  ( 41.8% of XC)
    Density eval.           ....       0.403 sec  ( 18.8% of XC)
    XC-Functional eval.     ....       0.240 sec  ( 11.2% of XC)
    XC-Potential eval.      ....       0.406 sec  ( 18.9% of XC)
Diagonalization             ....       0.074 sec  (  0.5%)
Density matrix formation    ....       0.004 sec  (  0.0%)
Population analysis         ....       0.013 sec  (  0.1%)
Initial guess               ....       0.110 sec  (  0.8%)
Orbital Transformation      ....       0.000 sec  (  0.0%)
Orbital Orthonormalization  ....       0.000 sec  (  0.0%)
DIIS solution               ....       0.050 sec  (  0.3%)
SOSCF solution              ....       0.022 sec  (  0.1%)
Grid generation             ....       1.612 sec  ( 11.0%)

Maximum memory used throughout the entire SCF-calculation: 49.4 MB

-------------------------   --------------------
FINAL SINGLE POINT ENERGY      -233.512327816305
-------------------------   --------------------



--------------------------------------   --------------------
FINAL SINGLE POINT ENERGY (QM/QM2/MM)     -501.328445436695
--------------------------------------   --------------------


                            ***************************************
                            *     ORCA property calculations      *
                            ***************************************

                                    ---------------------
                                    Active property flags
                                    ---------------------
   (+) Dipole Moment


------------------------------------------------------------------------------
                       ORCA ELECTRIC PROPERTIES CALCULATION
------------------------------------------------------------------------------

Dipole Moment Calculation                       ... on
Quadrupole Moment Calculation                   ... off
Polarizability Calculation                      ... off
GBWName                                         ... orca_qmm.gbw
Electron density                                ... orca_qmm.scfp
The origin for moment calculation is the CENTER OF MASS  = (28.404900,  3.212073  8.703955)

-------------
DIPOLE MOMENT
-------------
                                X             Y             Z
Electronic contribution:     -0.42030       5.11726       0.96405
Nuclear contribution   :      0.29767      -5.35312      -1.62943
                        -----------------------------------------
Total Dipole Moment    :     -0.12263      -0.23586      -0.66538
                        -----------------------------------------
Magnitude (a.u.)       :      0.71652
Magnitude (Debye)      :      1.82124



--------------------
Rotational spectrum 
--------------------
 
Rotational constants in cm-1:     0.396038     0.080649     0.072547 
Rotational constants in MHz : 11872.927224  2417.799392  2174.903823 

 Dipole components along the rotational axes: 
x,y,z [a.u.] :     0.305897    -0.645226     0.059227 
x,y,z [Debye]:     0.777530    -1.640035     0.150543 

 
------------------------------------------------------------------------------
                      ORCA CHELPG CHARGES GENERATION
------------------------------------------------------------------------------

GBW file                           ... orca_qmm.gbw
Density                            ... orca_qmm.scfp

Reading the GBW file               ... done
Reading the density                ... done

Grid spacing                       ...     0.300000
Point Cut-Off                      ...     2.800000
Van-der-Waals Radii                ...        COSMO
Total charge                       ...            0


Number of points X direction       ...           28
Number of points Y direction       ...           37
Number of points Z direction       ...           30
Maximum number of possible points  ...        31080
Final number of points             ...        10442


CHELPG Charges            
--------------------------------
  0   C   :       0.397987
  1   H   :      -0.044387
  2   H   :      -0.048583
  3   O   :      -0.695605
  4   H   :       0.429116
  5   C   :      -0.039216
  6   H   :       0.004986
  7   H   :       0.038506
  8   C   :      -0.069390
  9   H   :       0.039818
 10   H   :       0.029400
 11   C   :      -0.262167
 12   H   :       0.080415
 13   H   :       0.062073
 14   H   :       0.077047
--------------------------------
Total charge:     0.000000
--------------------------------

CHELPG charges calculated...

Timings for individual parts in CHELPG calculation:
Grid generation                 ...        0.008 sec (=   0.000 min)
Potential calculation           ...        5.492 sec (=   0.092 min)
Fit to the potential            ...        0.024 sec (=   0.000 min)
------------------------------------------------------------------------------


Timings for individual modules:

Sum of individual times         ...       24.913 sec (=   0.415 min)
GTO integral calculation        ...        0.778 sec (=   0.013 min)   3.1 %
SCF iterations                  ...       14.907 sec (=   0.248 min)  59.8 %
CHELPG charge generation        ...        5.600 sec (=   0.093 min)  22.5 %
MM module                       ...        0.337 sec (=   0.006 min)   1.4 %
XTB module                      ...        1.645 sec (=   0.027 min)   6.6 %
ONIOM_Small energy and gradient ...        0.334 sec (=   0.006 min)   1.3 %
ONIOM_Medium energy and gradient...        1.312 sec (=   0.022 min)   5.3 %
                             ****ORCA TERMINATED NORMALLY****
TOTAL RUN TIME: 0 days 0 hours 0 minutes 24 seconds 251 msec
